 Gaussian 16, Revision A.03,

 ----------------------------------------------------------------------
 # opt=(modredundant,loose) freq wb97xd/6-31g(d) 5d scf=(maxconventiona
 lcycles=100,xqc)
 ----------------------------------------------------------------------

 -------
 comment
 -------
 Symbolic Z-matrix:
 Charge =  0 Multiplicity = 2

 SCF Done:  E(UwB97XD) =  -155.470871557     A.U. after   17 cycles
 SCF Done:  E(UwB97XD) =  -155.472442629     A.U. after   14 cycles
 SCF Done:  E(UwB97XD) =  -155.470450675     A.U. after   15 cycles
 SCF Done:  E(UwB97XD) =  -155.472838664     A.U. after   13 cycles
 SCF Done:  E(UwB97XD) =  -155.472312843     A.U. after   15 cycles
 SCF Done:  E(UwB97XD) =  -155.472947352     A.U. after   12 cycles
 Optimization completed.
    -- Stationary point found.
 Normal termination of Gaussian 16 at Thu Nov  8 14:20:09 2018.

 ---------------------------------------------------------------------
 #N Geom=AllCheck Guess=TCheck SCRF=Check GenChk UwB97XD/6-31G(d) Freq
 ---------------------------------------------------------------------

 Structure from the checkpoint file:  "calc.chk"
 -------
 comment
 -------
 Charge =  0 Multiplicity = 2

 SCF Done:  E(UwB97XD) =  -155.472947352     A.U. after    1 cycles
 ******    1 imaginary frequencies (negative Signs) ******
    1 imaginary frequencies ignored.
 Optimization completed.
 Normal termination of Gaussian 16 at Thu Nov  8 14:20:46 2018.
 Gaussian 16:  ES64L-G16RevA.03 25-Dec-2016

 ----------------------------------------------------------------------
 # wb97xd 5d 6-31g* geom=check guess=read scf=xqc freq opt=(addredundan
 t,readfc,loose,nofreeze,ts,noeigentest)
 ----------------------------------------------------------------------

 -------
 ni1182a
 -------
 Structure from the checkpoint file:  "calc.chk"
 Charge =  0 Multiplicity = 2

 SCF Done:  E(UwB97XD) =  -155.472947352     A.U. after    1 cycles
 SCF Done:  E(UwB97XD) =  -155.472806993     A.U. after   15 cycles
    -- Stationary point found.
 Normal termination of Gaussian 16 at Thu Nov  8 14:21:01 2018.

 ---------------------------------------------------------------------
 #N Geom=AllCheck Guess=TCheck SCRF=Check GenChk UwB97XD/6-31G(d) Freq
 ---------------------------------------------------------------------

 Structure from the checkpoint file:  "calc.chk"
 -------
 ni1182a
 -------
 Charge =  0 Multiplicity = 2

                         Standard orientation:
 ---------------------------------------------------------------------
 Center     Atomic      Atomic             Coordinates (Angstroms)
 Number     Number       Type             X           Y           Z
 ---------------------------------------------------------------------
      1          6           0        0.095610    0.340233    0.299852
      2          1           0        0.138061    1.471564   -0.255353
      3          1           0        0.180603    0.583088    1.369189
      4          8           0        1.134521   -0.449173   -0.169118
      5          1           0        1.969582   -0.082833    0.144432
      6          1           0        0.167772    2.395350   -0.752160
      7          6           0       -1.233613   -0.262139   -0.073624
      8          1           0       -2.048597    0.397192    0.239280
      9          1           0       -1.290898   -0.401602   -1.157208
     10          1           0       -1.364668   -1.237944    0.407399
 ---------------------------------------------------------------------

 SCF Done:  E(UwB97XD) =  -155.472806993     A.U. after    1 cycles

 The electronic state is 2-A.
 Alpha  occ. eigenvalues --  -19.28159 -10.35236 -10.28309  -1.14593  -0.85768
 Alpha  occ. eigenvalues --   -0.71406  -0.62980  -0.57533  -0.50453  -0.47516
 Alpha  occ. eigenvalues --   -0.46689  -0.43804  -0.40037  -0.27055
 Alpha virt. eigenvalues --    0.16008   0.20633   0.23400   0.25410   0.26395
 Alpha virt. eigenvalues --    0.29615   0.31427   0.32364   0.60886   0.63752
 Alpha virt. eigenvalues --    0.65165   0.66234   0.74094   0.75860   0.85133

  Beta  occ. eigenvalues --  -19.27981 -10.34534 -10.28327  -1.14010  -0.84971
  Beta  occ. eigenvalues --   -0.70268  -0.62188  -0.55207  -0.49842  -0.47375
  Beta  occ. eigenvalues --   -0.45515  -0.42517  -0.37279
  Beta virt. eigenvalues --    0.00238   0.16277   0.20833   0.23830   0.25465
  Beta virt. eigenvalues --    0.26696   0.30407   0.32305   0.34764   0.61345
  Beta virt. eigenvalues --    0.64151   0.66012   0.66539   0.75146   0.77388

 Mulliken charges and spin densities:
               1          2
     1  C    0.023781   0.418163
     2  H    0.017684  -0.139204
     3  H    0.155948   0.002300
     4  O   -0.607417   0.059282
     5  H    0.428521  -0.001509
     6  H   -0.060523   0.653602
     7  C   -0.508058  -0.015569
     8  H    0.174310   0.000884
     9  H    0.190830   0.005408
    10  H    0.184924   0.016642
 Sum of Mulliken charges =   0.00000   1.00000

 Dipole moment (field-independent basis, Debye):
    X=              0.3902    Y=             -0.1056    Z=              1.4155  Tot=              1.4721
 Quadrupole moment (field-independent basis, Debye-Ang):
   XX=            -16.8932   YY=            -25.0662   ZZ=            -21.2330
   XY=              1.0990   XZ=              1.3974   YZ=              1.0099

  Exact polarizability:  29.436   0.235  42.653   0.224  -6.846  27.587
 Approx polarizability:  27.517  -1.159  39.909  -0.040  -5.228  27.472

 ******    1 imaginary frequencies (negative Signs) ******

                      1                      2                      3
                      A                      A                      A
 Frequencies --  -1195.4932               218.1833               288.0014
 Red. masses --      1.0835                 1.0392                 1.1021
 Frc consts  --      0.9124                 0.0291                 0.0539
 IR Inten    --    219.1929                 2.9963                14.1770

                      4                      5                      6
                      A                      A                      A
 Frequencies --    365.6105               373.1707               432.4570
 Red. masses --      1.2356                 1.2498                 2.5610
 Frc consts  --      0.0973                 0.1025                 0.2822
 IR Inten    --     48.8024               103.5900                13.1792

                      7                      8                      9
                      A                      A                      A
 Frequencies --    891.9931               950.4850              1065.4976
 Red. masses --      1.1219                 1.8961                 1.6595
 Frc consts  --      0.5259                 1.0092                 1.1100
 IR Inten    --      0.7049                 3.7385                41.8301

                     10                     11                     12
                      A                      A                      A
 Frequencies --   1170.0745              1205.8711              1302.9599
 Red. masses --      1.2367                 2.4608                 1.2748
 Frc consts  --      0.9976                 2.1083                 1.2752
 IR Inten    --      7.6832                60.3016                66.6336

                     13                     14                     15
                      A                      A                      A
 Frequencies --   1314.9054              1347.4948              1426.5455
 Red. masses --      1.0679                 1.2590                 1.1999
 Frc consts  --      1.0878                 1.3469                 1.4387
 IR Inten    --     19.2903                79.5991                 8.8586

                     16                     17                     18
                      A                      A                      A
 Frequencies --   1441.0020              1492.0274              1516.2531
 Red. masses --      1.1535                 1.5034                 1.0523
 Frc consts  --      1.4112                 1.9719                 1.4254
 IR Inten    --     11.8363                20.9915                 4.7259

                     19                     20                     21
                      A                      A                      A
 Frequencies --   1533.6128              3048.6755              3073.0246
 Red. masses --      1.0647                 1.0841                 1.0368
 Frc consts  --      1.4754                 5.9364                 5.7688
 IR Inten    --      1.4501                61.6090                14.2981

                     22                     23                     24
                      A                      A                      A
 Frequencies --   3151.0480              3168.4524              3848.6064
 Red. masses --      1.1017                 1.1032                 1.0662
 Frc consts  --      6.4450                 6.5254                 9.3046
 IR Inten    --     16.2688                20.1349                38.9571

 - Thermochemistry -
 -------------------
 Temperature   298.150 Kelvin.  Pressure   1.00000 Atm.
 Atom     1 has atomic number  6 and mass  12.00000

 Molecular mass:    47.04969 amu.
 Principal axes and moments of inertia in atomic units:
                           1         2         3
     Eigenvalues --    75.11085 200.95645 236.51958
           X            0.99851   0.05308   0.01268
           Y           -0.05097   0.99011  -0.13068
           Z           -0.01949   0.12984   0.99134
 This molecule is an asymmetric top.
 Rotational symmetry number  1.
 Rotational temperatures (Kelvin)      1.15315     0.43101     0.36620
 Rotational constants (GHZ):          24.02770     8.98076     7.63041
    1 imaginary frequencies ignored.
 Zero-point vibrational energy     207109.2 (Joules/Mol)
                                   49.50028 (Kcal/Mol)
 Warning -- explicit consideration of   5 degrees of freedom as
           vibrations may cause significant error
 Vibrational temperatures:    313.92   414.37   526.03   536.91   622.21
          (Kelvin)           1283.38  1367.54  1533.01  1683.48  1734.98
                             1874.67  1891.86  1938.74  2052.48  2073.28
                             2146.69  2181.55  2206.53  4386.36  4421.40
                             4533.66  4558.70  5537.29

 Zero-point correction=                           0.078884 (Hartree/Particle)
 Thermal correction to Energy=                    0.083866
 Thermal correction to Enthalpy=                  0.084810
 Thermal correction to Gibbs Free Energy=         0.052181
 Sum of electronic and zero-point Energies=           -155.393923
 Sum of electronic and thermal Energies=              -155.388941
 Sum of electronic and thermal Enthalpies=            -155.387997
 Sum of electronic and thermal Free Energies=         -155.420626

                     E (Thermal)             CV                S
                      KCal/Mol        Cal/Mol-Kelvin    Cal/Mol-Kelvin
 Total                   52.627             16.441             68.675
 Electronic               0.000              0.000              1.377
 Translational            0.889              2.981             37.471
 Rotational               0.889              2.981             22.794
 Vibrational             50.849             10.479              7.032
 Vibration     1          0.646              1.813              1.974
 Vibration     2          0.685              1.696              1.486
 Vibration     3          0.739              1.543              1.098
 Vibration     4          0.745              1.527              1.067
 Vibration     5          0.793              1.400              0.851

 Optimization completed.
    -- Stationary point found.
 Normal termination of Gaussian 16 at Thu Nov  8 14:21:37 2018.
