 Gaussian 16, Revision A.03,

 ----------------------------------------------------------------------
 # opt=(modredundant,loose) freq wb97xd/6-31g(d) 5d scf=(maxconventiona
 lcycles=100,xqc)
 ----------------------------------------------------------------------

 -------
 comment
 -------
 Symbolic Z-matrix:
 Charge =  0 Multiplicity = 2

 SCF Done:  E(UwB97XD) =  -116.130175438     A.U. after   16 cycles
 SCF Done:  E(UwB97XD) =  -116.132136618     A.U. after   15 cycles
 SCF Done:  E(UwB97XD) =  -116.129331760     A.U. after   15 cycles
 SCF Done:  E(UwB97XD) =  -116.132791485     A.U. after   14 cycles
 SCF Done:  E(UwB97XD) =  -116.130845915     A.U. after   15 cycles
 SCF Done:  E(UwB97XD) =  -116.133038150     A.U. after   13 cycles
 SCF Done:  E(UwB97XD) =  -116.133078862     A.U. after   11 cycles
 Optimization completed.
    -- Stationary point found.
 Normal termination of Gaussian 16 at Thu Nov  8 12:52:31 2018.

 ---------------------------------------------------------------------
 #N Geom=AllCheck Guess=TCheck SCRF=Check GenChk UwB97XD/6-31G(d) Freq
 ---------------------------------------------------------------------

 Structure from the checkpoint file:  "calc.chk"
 -------
 comment
 -------
 Charge =  0 Multiplicity = 2

 SCF Done:  E(UwB97XD) =  -116.133078862     A.U. after    1 cycles
 ******    2 imaginary frequencies (negative Signs) ******
    2 imaginary frequencies ignored.
                           ! Non-Optimized Parameters !
 Normal termination of Gaussian 16 at Thu Nov  8 12:52:47 2018.
 Gaussian 16:  ES64L-G16RevA.03 25-Dec-2016

 ----------------------------------------------------------------------
 # wb97xd 5d 6-31g* geom=check guess=read scf=xqc freq opt=(addredundan
 t,readfc,loose,nofreeze,ts,noeigentest)
 ----------------------------------------------------------------------

 -------
 ni1182a
 -------
 Structure from the checkpoint file:  "calc.chk"
 Charge =  0 Multiplicity = 2

 SCF Done:  E(UwB97XD) =  -116.133078862     A.U. after    1 cycles
 SCF Done:  E(UwB97XD) =  -116.157939388     A.U. after   16 cycles
 SCF Done:  E(UwB97XD) =  -116.162580988     A.U. after   15 cycles
 SCF Done:  E(UwB97XD) =  -116.162673685     A.U. after   15 cycles
 SCF Done:  E(UwB97XD) =  -116.162016568     A.U. after   16 cycles
 SCF Done:  E(UwB97XD) =  -116.160710369     A.U. after   17 cycles
 SCF Done:  E(UwB97XD) =  -116.162107127     A.U. after   15 cycles
 SCF Done:  E(UwB97XD) =  -116.162387449     A.U. after   17 cycles
 SCF Done:  E(UwB97XD) =  -116.162801793     A.U. after   15 cycles
 SCF Done:  E(UwB97XD) =  -116.163121904     A.U. after   15 cycles
 SCF Done:  E(UwB97XD) =  -116.163111159     A.U. after   15 cycles
    -- Stationary point found.
 Normal termination of Gaussian 16 at Thu Nov  8 12:54:05 2018.

 ---------------------------------------------------------------------
 #N Geom=AllCheck Guess=TCheck SCRF=Check GenChk UwB97XD/6-31G(d) Freq
 ---------------------------------------------------------------------

 Structure from the checkpoint file:  "calc.chk"
 -------
 ni1182a
 -------
 Charge =  0 Multiplicity = 2

                         Standard orientation:
 ---------------------------------------------------------------------
 Center     Atomic      Atomic             Coordinates (Angstroms)
 Number     Number       Type             X           Y           Z
 ---------------------------------------------------------------------
      1          6           0       -0.478428   -0.324057    0.039972
      2          1           0       -0.735712   -0.985040   -0.788300
      3          1           0       -1.321996    0.651418   -0.055601
      4          1           0       -0.701652   -0.772889    1.016501
      5          8           0        0.815872    0.123093   -0.118572
      6          1           0        1.066648    0.632846    0.660400
      7          1           0       -1.963697    1.433269   -0.124258
 ---------------------------------------------------------------------

 SCF Done:  E(UwB97XD) =  -116.163111159     A.U. after    1 cycles

 The electronic state is 2-A.
 Alpha  occ. eigenvalues --  -19.28892 -10.34920  -1.15200  -0.79170  -0.62454
 Alpha  occ. eigenvalues --   -0.55843  -0.53593  -0.44900  -0.40966  -0.27324
 Alpha virt. eigenvalues --    0.15704   0.21878   0.24558   0.29073   0.30445
 Alpha virt. eigenvalues --    0.62237   0.65673   0.66313   0.81458   0.87182
 Alpha virt. eigenvalues --    0.95118   0.98205   0.98908   1.06091   1.09207

  Beta  occ. eigenvalues --  -19.28670 -10.34172  -1.14518  -0.77336  -0.61515
  Beta  occ. eigenvalues --   -0.53241  -0.52195  -0.43455  -0.38000
  Beta virt. eigenvalues --    0.00152   0.15996   0.22437   0.25301   0.29881
  Beta virt. eigenvalues --    0.33109   0.63164   0.66302   0.68828   0.84433
  Beta virt. eigenvalues --    0.88878   0.95737   0.99286   1.01262   1.06666

 Mulliken charges and spin densities:
               1          2
     1  C   -0.162190   0.463283
     2  H    0.195631  -0.009864
     3  H    0.016881  -0.142959
     4  H    0.165322   0.000374
     5  O   -0.593088   0.072910
     6  H    0.430586  -0.002092
     7  H   -0.053143   0.618347
 Sum of Mulliken charges =   0.00000   1.00000

 Dipole moment (field-independent basis, Debye):
    X=              0.2975    Y=             -0.4791    Z=              1.5438  Tot=              1.6436
 Quadrupole moment (field-independent basis, Debye-Ang):
   XX=            -16.4572   YY=            -14.8944   ZZ=            -13.3610
   XY=              3.0335   XZ=              1.6765   YZ=              1.3090

  Exact polarizability:  27.451  -8.848  24.550   1.721  -0.295  15.441
 Approx polarizability:  24.986  -7.041  22.074   0.850   0.265  15.097

 ******    1 imaginary frequencies (negative Signs) ******

                      1                      2                      3
                      A                      A                      A
 Frequencies --  -1388.8201               320.7975               391.3369
 Red. masses --      1.0791                 1.1771                 1.2089
 Frc consts  --      1.2263                 0.0714                 0.1091
 IR Inten    --    143.2571                25.0518               127.0537

                      4                      5                      6
                      A                      A                      A
 Frequencies --    585.7326              1111.5525              1162.2890
 Red. masses --      1.0673                 1.0972                 1.1753
 Frc consts  --      0.2157                 0.7987                 0.9354
 IR Inten    --     22.5630                79.6529                11.1149

                      7                      8                      9
                      A                      A                      A
 Frequencies --   1190.8776              1343.8700              1379.0890
 Red. masses --      3.4090                 1.0974                 1.0900
 Frc consts  --      2.8485                 1.1677                 1.2214
 IR Inten    --     96.5164                16.2850                 7.0027

                     10                     11                     12
                      A                      A                      A
 Frequencies --   1414.8955              1423.7136              1525.6455
 Red. masses --      1.2101                 1.1578                 1.1403
 Frc consts  --      1.4273                 1.3827                 1.5638
 IR Inten    --     52.3476                 5.6090                10.1551

                     13                     14                     15
                      A                      A                      A
 Frequencies --   3064.2251              3195.8397              3849.0614
 Red. masses --      1.0601                 1.1054                 1.0663
 Frc consts  --      5.8647                 6.6520                 9.3073
 IR Inten    --     46.6999                27.0116                44.3713

 - Thermochemistry -
 -------------------
 Temperature   298.150 Kelvin.  Pressure   1.00000 Atm.
 Atom     1 has atomic number  6 and mass  12.00000

 Molecular mass:    33.03404 amu.
 Principal axes and moments of inertia in atomic units:
                           1         2         3
     Eigenvalues --    28.76459  83.57588  95.80744
           X            0.99178  -0.12168   0.03955
           Y            0.12017   0.99200   0.03863
           Z           -0.04394  -0.03356   0.99847
 This molecule is an asymmetric top.
 Rotational symmetry number  1.
 Rotational temperatures (Kelvin)      3.01113     1.03635     0.90404
 Rotational constants (GHZ):          62.74178    21.59404    18.83717
    1 imaginary frequencies ignored.
 Zero-point vibrational energy     131343.5 (Joules/Mol)
                                   31.39186 (Kcal/Mol)
 Warning -- explicit consideration of   3 degrees of freedom as
           vibrations may cause significant error
 Vibrational temperatures:    461.56   563.05   842.74  1599.28  1672.27
          (Kelvin)           1713.41  1933.53  1984.20  2035.72  2048.41
                             2195.06  4408.74  4598.10  5537.94

 Zero-point correction=                           0.050026 (Hartree/Particle)
 Thermal correction to Energy=                    0.053836
 Thermal correction to Enthalpy=                  0.054780
 Thermal correction to Gibbs Free Energy=         0.025855
 Sum of electronic and zero-point Energies=           -116.113085
 Sum of electronic and thermal Energies=              -116.109276
 Sum of electronic and thermal Enthalpies=            -116.108331
 Sum of electronic and thermal Free Energies=         -116.137256

                     E (Thermal)             CV                S
                      KCal/Mol        Cal/Mol-Kelvin    Cal/Mol-Kelvin
 Total                   33.782             11.367             60.878
 Electronic               0.000              0.000              1.377
 Translational            0.889              2.981             36.416
 Rotational               0.889              2.981             20.071
 Vibrational             32.005              5.405              3.013
 Vibration     1          0.706              1.634              1.306
 Vibration     2          0.759              1.489              0.995
 Vibration     3          0.943              1.062              0.475

 Optimization completed.
    -- Stationary point found.
 Normal termination of Gaussian 16 at Thu Nov  8 12:54:20 2018.
