 Gaussian 16, Revision A.03,
 Gaussian 16:  ES64L-G16RevA.03 25-Dec-2016

 -----------------------------------------------------------------
 # opt freq wb97xd/6-31g(d) 5d scf=(maxconventionalcycles=100,xqc)
 -----------------------------------------------------------------

 -------
 comment
 -------
 Symbolic Z-matrix:
 Charge =  0 Multiplicity = 1

 SCF Done:  E(RwB97XD) =  -154.982067787     A.U. after   12 cycles
 SCF Done:  E(RwB97XD) =  -154.982324179     A.U. after    9 cycles
 SCF Done:  E(RwB97XD) =  -154.982336133     A.U. after    8 cycles
 SCF Done:  E(RwB97XD) =  -154.982336866     A.U. after    7 cycles
 Optimization completed.
    -- Stationary point found.
 Normal termination of Gaussian 16 at Thu Nov  8 15:19:25 2018.

 ---------------------------------------------------------------------
 #N Geom=AllCheck Guess=TCheck SCRF=Check GenChk RwB97XD/6-31G(d) Freq
 ---------------------------------------------------------------------

 Structure from the checkpoint file:  "calc.chk"
 -------
 comment
 -------
 Charge =  0 Multiplicity = 1

                         Standard orientation:
 ---------------------------------------------------------------------
 Center     Atomic      Atomic             Coordinates (Angstroms)
 Number     Number       Type             X           Y           Z
 ---------------------------------------------------------------------
      1          6           0        1.219464   -0.220281    0.000001
      2          1           0        1.285107   -0.857824    0.886819
      3          1           0        2.069251    0.470019   -0.000009
      4          1           0        1.285097   -0.857837   -0.886809
      5          6           0       -0.090170    0.545547   -0.000000
      6          1           0       -0.140805    1.196366    0.887536
      7          1           0       -0.140803    1.196365   -0.887537
      8          8           0       -1.144347   -0.397814   -0.000001
      9          1           0       -1.978838    0.083827    0.000007
 ---------------------------------------------------------------------

 SCF Done:  E(RwB97XD) =  -154.982336866     A.U. after    1 cycles

 The electronic state is 1-A.
 Alpha  occ. eigenvalues --  -19.25305 -10.33080 -10.27239  -1.11320  -0.84185
 Alpha  occ. eigenvalues --   -0.69933  -0.60102  -0.54799  -0.48052  -0.46122
 Alpha  occ. eigenvalues --   -0.44320  -0.40681  -0.34456
 Alpha virt. eigenvalues --    0.16851   0.20688   0.24197   0.25059   0.26226
 Alpha virt. eigenvalues --    0.28546   0.30202   0.32158   0.61617   0.64768
 Alpha virt. eigenvalues --    0.65603   0.67717   0.76727   0.77400   0.91139

 Mulliken charges:
               1
     1  C   -0.507797
     2  H    0.178933
     3  H    0.160404
     4  H    0.178934
     5  C   -0.046092
     6  H    0.136333
     7  H    0.136333
     8  O   -0.651103
     9  H    0.414056
 Sum of Mulliken charges =  -0.00000

 Dipole moment (field-independent basis, Debye):
    X=             -0.2836    Y=              1.5808    Z=              0.0000  Tot=              1.6060
 Quadrupole moment (field-independent basis, Debye-Ang):
   XX=            -16.4533   YY=            -20.2789   ZZ=            -19.8204
   XY=             -1.9353   XZ=             -0.0000   YZ=              0.0000

  Exact polarizability:  28.859  -0.323  25.583  -0.000   0.000  23.872
 Approx polarizability:  26.897   0.549  26.131  -0.000   0.000  24.225

                      1                      2                      3
                      A                      A                      A
 Frequencies --    251.1422               302.9927               424.8024
 Red. masses --      1.1510                 1.0706                 2.6296
 Frc consts  --      0.0428                 0.0579                 0.2796
 IR Inten    --     29.1566               111.0262                11.9663

                      4                      5                      6
                      A                      A                      A
 Frequencies --    835.4191               929.5611              1062.4744
 Red. masses --      1.0814                 2.0991                 1.9498
 Frc consts  --      0.4447                 1.0687                 1.2968
 IR Inten    --      0.0112                 6.4831                47.4864

                      7                      8                      9
                      A                      A                      A
 Frequencies --   1157.0685              1204.4168              1308.6625
 Red. masses --      2.5623                 1.5243                 1.2557
 Frc consts  --      2.0212                 1.3028                 1.2670
 IR Inten    --     32.6877                 5.4832                97.8728

                     10                     11                     12
                      A                      A                      A
 Frequencies --   1323.8784              1433.7635              1495.8693
 Red. masses --      1.1077                 1.2345                 1.4767
 Frc consts  --      1.1439                 1.4952                 1.9468
 IR Inten    --      0.0600                 1.7095                15.5191

                     13                     14                     15
                      A                      A                      A
 Frequencies --   1520.4051              1539.0436              1569.5439
 Red. masses --      1.0400                 1.0486                 1.0931
 Frc consts  --      1.4164                 1.4634                 1.5866
 IR Inten    --      5.3749                 3.2721                 2.7222

                     16                     17                     18
                      A                      A                      A
 Frequencies --   3004.6230              3035.4933              3076.0632
 Red. masses --      1.0557                 1.1080                 1.0356
 Frc consts  --      5.6152                 6.0152                 5.7733
 IR Inten    --     74.2163                76.9367                15.5071

                     19                     20                     21
                      A                      A                      A
 Frequencies --   3157.5909              3163.4870              3852.3539
 Red. masses --      1.1027                 1.1039                 1.0663
 Frc consts  --      6.4777                 6.5087                 9.3236
 IR Inten    --     28.9858                30.8548                19.9491

 - Thermochemistry -
 -------------------
 Temperature   298.150 Kelvin.  Pressure   1.00000 Atm.
 Atom     1 has atomic number  6 and mass  12.00000

 Molecular mass:    46.04186 amu.
 Principal axes and moments of inertia in atomic units:
                           1         2         3
     Eigenvalues --    51.25793 191.55745 220.15372
           X            0.99911  -0.04221  -0.00000
           Y            0.04221   0.99911  -0.00000
           Z            0.00000   0.00000   1.00000
 This molecule is an asymmetric top.
 Rotational symmetry number  1.
 Rotational temperatures (Kelvin)      1.68977     0.45216     0.39342
 Rotational constants (GHZ):          35.20901     9.42141     8.19764
 Zero-point vibrational energy     213226.3 (Joules/Mol)
                                   50.96231 (Kcal/Mol)
 Warning -- explicit consideration of   3 degrees of freedom as
           vibrations may cause significant error
 Vibrational temperatures:    361.34   435.94   611.20  1201.98  1337.43
          (Kelvin)           1528.66  1664.76  1732.89  1882.87  1904.77
                             2062.87  2152.22  2187.52  2214.34  2258.22
                             4322.98  4367.40  4425.77  4543.07  4551.55
                             5542.68

 Zero-point correction=                           0.081214 (Hartree/Particle)
 Thermal correction to Energy=                    0.085461
 Thermal correction to Enthalpy=                  0.086405
 Thermal correction to Gibbs Free Energy=         0.055865
 Sum of electronic and zero-point Energies=           -154.901123
 Sum of electronic and thermal Energies=              -154.896876
 Sum of electronic and thermal Enthalpies=            -154.895932
 Sum of electronic and thermal Free Energies=         -154.926472

                     E (Thermal)             CV                S
                      KCal/Mol        Cal/Mol-Kelvin    Cal/Mol-Kelvin
 Total                   53.627             13.257             64.276
 Electronic               0.000              0.000              0.000
 Translational            0.889              2.981             37.406
 Rotational               0.889              2.981             22.296
 Vibrational             51.850              7.296              4.574
 Vibration     1          0.663              1.761              1.723
 Vibration     2          0.694              1.668              1.400
 Vibration     3          0.787              1.416              0.876

 Optimization completed.
    -- Stationary point found.
 Normal termination of Gaussian 16 at Thu Nov  8 15:19:47 2018.
