 Gaussian 16, Revision A.03,
 Gaussian 16:  ES64L-G16RevA.03 25-Dec-2016

 -----------------------------------------------------------------
 # opt freq wb97xd/6-31g(d) 5d scf=(maxconventionalcycles=100,xqc)
 -----------------------------------------------------------------

 -------
 comment
 -------
 Symbolic Z-matrix:
 Charge =  0 Multiplicity = 1

 SCF Done:  E(RwB97XD) =  -115.675084785     A.U. after   13 cycles
 SCF Done:  E(RwB97XD) =  -115.675246262     A.U. after   11 cycles
 SCF Done:  E(RwB97XD) =  -115.675252258     A.U. after    8 cycles
 Optimization completed.
    -- Stationary point found.
 Normal termination of Gaussian 16 at Thu Nov  8 15:01:58 2018.

 ---------------------------------------------------------------------
 #N Geom=AllCheck Guess=TCheck SCRF=Check GenChk RwB97XD/6-31G(d) Freq
 ---------------------------------------------------------------------

 Structure from the checkpoint file:  "calc.chk"
 -------
 comment
 -------
 Charge =  0 Multiplicity = 1

                         Standard orientation:
 ---------------------------------------------------------------------
 Center     Atomic      Atomic             Coordinates (Angstroms)
 Number     Number       Type             X           Y           Z
 ---------------------------------------------------------------------
      1          8           0       -0.046689   -0.752965    0.000000
      2          1           0        0.869471   -1.050090   -0.000000
      3          6           0       -0.046689    0.656824    0.000000
      4          1           0       -1.092350    0.973801    0.000000
      5          1           0        0.438262    1.079532    0.892785
      6          1           0        0.438262    1.079532   -0.892785
 ---------------------------------------------------------------------

 SCF Done:  E(RwB97XD) =  -115.675252258     A.U. after    1 cycles

 The electronic state is 1-A'.
 Alpha  occ. eigenvalues --  -19.25561 -10.32528  -1.11428  -0.77417  -0.59163
 Alpha  occ. eigenvalues --   -0.52144  -0.50574  -0.41274  -0.34811
 Alpha virt. eigenvalues --    0.16881   0.22122   0.25313   0.26111   0.29574
 Alpha virt. eigenvalues --    0.63128   0.65960   0.66801   0.88454   0.94881
 Alpha virt. eigenvalues --    0.97337   1.00849   1.07042   1.09303   1.12261

 Mulliken charges:
               1
     1  O   -0.645674
     2  H    0.414403
     3  C   -0.238285
     4  H    0.178654
     5  H    0.145451
     6  H    0.145451
 Sum of Mulliken charges =  -0.00000

 Dipole moment (field-independent basis, Debye):
    X=              1.4750    Y=              0.9233    Z=              0.0000  Tot=              1.7401
 Quadrupole moment (field-independent basis, Debye-Ang):
   XX=            -11.4392   YY=            -12.9166   ZZ=            -13.5198
   XY=             -2.1714   XZ=              0.0000   YZ=              0.0000

  Exact polarizability:  15.967  -0.939  16.437   0.000   0.000  14.011
 Approx polarizability:  15.818  -0.586  15.807   0.000   0.000  13.323

                      1                      2                      3
                     A"                     A'                     A'
 Frequencies --    345.7791              1093.9802              1128.3176
 Red. masses --      1.0700                 1.3462                 3.1164
 Frc consts  --      0.0754                 0.9492                 2.3376
 IR Inten    --    135.9535               101.5854                26.3133

                      4                      5                      6
                     A"                     A'                     A'
 Frequencies --   1196.2830              1410.7868              1523.5172
 Red. masses --      1.2720                 1.2857                 1.1480
 Frc consts  --      1.0725                 1.5077                 1.5700
 IR Inten    --      0.5795                31.4551                 6.6216

                      7                      8                      9
                     A"                     A'                     A'
 Frequencies --   1536.0975              1550.0537              3014.1533
 Red. masses --      1.0480                 1.0488                 1.0370
 Frc consts  --      1.4570                 1.4847                 5.5508
 IR Inten    --      2.1091                 3.9037                62.3393

                     10                     11                     12
                     A"                     A'                     A'
 Frequencies --   3065.6964              3157.4970              3856.2508
 Red. masses --      1.1057                 1.0975                 1.0664
 Frc consts  --      6.1229                 6.4470                 9.3433
 IR Inten    --     83.1139                34.5162                21.1929

 - Thermochemistry -
 -------------------
 Temperature   298.150 Kelvin.  Pressure   1.00000 Atm.
 Atom     1 has atomic number  8 and mass  15.99491

 Molecular mass:    32.02621 amu.
 Principal axes and moments of inertia in atomic units:
                           1         2         3
     Eigenvalues --    14.13282  72.07750  74.73574
           X           -0.05469   0.99850   0.00000
           Y            0.99850   0.05469   0.00000
           Z           -0.00000  -0.00000   1.00000
 This molecule is an asymmetric top.
 Rotational symmetry number  1.
 Rotational temperatures (Kelvin)      6.12856     1.20168     1.15894
 Rotational constants (GHZ):         127.69857    25.03890    24.14830
 Zero-point vibrational energy     136843.3 (Joules/Mol)
                                   32.70633 (Kcal/Mol)
 Warning -- explicit consideration of   1 degrees of freedom as
           vibrations may cause significant error
 Vibrational temperatures:    497.50  1573.99  1623.40  1721.18  2029.81
          (Kelvin)           2192.00  2210.10  2230.18  4336.69  4410.85
                             4542.93  5548.28

 Zero-point correction=                           0.052121 (Hartree/Particle)
 Thermal correction to Energy=                    0.055404
 Thermal correction to Enthalpy=                  0.056348
 Thermal correction to Gibbs Free Energy=         0.029413
 Sum of electronic and zero-point Energies=           -115.623131
 Sum of electronic and thermal Energies=              -115.619848
 Sum of electronic and thermal Enthalpies=            -115.618904
 Sum of electronic and thermal Free Energies=         -115.645839

                     E (Thermal)             CV                S
                      KCal/Mol        Cal/Mol-Kelvin    Cal/Mol-Kelvin
 Total                   34.767              8.595             56.689
 Electronic               0.000              0.000              0.000
 Translational            0.889              2.981             36.324
 Rotational               0.889              2.981             18.971
 Vibrational             32.989              2.633              1.394
 Vibration     1          0.724              1.584              1.185

 Optimization completed.
    -- Stationary point found.
 Normal termination of Gaussian 16 at Thu Nov  8 15:02:05 2018.
